12
R1=3, R2=3; v1 = 0.8, v2 = 0.04; Energy = -1.49983
C              -12.3285       -12.7724       -2.3805        
C              -8.27567       -8.18392       -2.53725       
C              -9.12323       -11.6911       -7.48353       
C              -6.89393       -20.0976       -2.59929       
C              -6.33222       -13.9925       -2.5443        
C              -2.2777        -9.40771       -2.40578       
H              -4.9864        -6.82951       2.44092        
H              -6.22108       -17.1325       2.69574        
H              -9.7054        -22.1622       2.42843        
H              -8.82896       -11.5976       2.50398        
H              -11.0367       -5.88707       2.41832        
H              -12.316        -16.6254       2.38045        
12
R1=3, R2=3; v1 = 0.8, v2 = 0.04; Energy = -1.59051
C              -11.9078       -13.2709       -2.49744       
C              -8.35747       -8.28775       -2.5147        
C              -8.70096       -11.8168       -7.50591       
C              -9.35919       -18.8363       -2.51847       
C              -5.80756       -13.8513       -2.50876       
C              -2.26137       -8.86244       -2.41758       
H              -5.22337       -6.74669       2.50262        
H              -6.13702       -17.3807       2.47615        
H              -9.68644       -22.3721       2.46061        
H              -8.67955       -11.8053       2.48806        
H              -11.33         -6.28482       2.44271        
H              -12.2298       -16.8004       2.48706        
12
R1=3, R2=3; v1 = 0.8, v2 = 0.04; Energy = -1.59051
C              -12.1003       -13.2618       -2.49795       
C              -8.45072       -8.35081       -2.51464       
C              -8.86406       -11.8722       -7.50588       
C              -9.66372       -18.8772       -2.51848       
C              -6.01285       -13.9645       -2.5083        
C              -2.36736       -9.04762       -2.41814       
H              -5.28592       -6.8738        2.50268        
H              -6.41384       -17.4864       2.4766         
H              -10.0627       -22.4057       2.46061        
H              -8.84406       -11.8612       2.48805        
H              -11.3819       -6.28801       2.44284        
H              -12.4938       -16.784        2.48657        
12
R1=3, R2=3; v1 = 0.8, v2 = 0.04; Energy = -1.6297
C              -13.974        -12.9529       -2.4783        
C              -9.95113       -8.34007       -2.5146        
C              -17.9949       -17.5725       -2.4518        
C              -11.9827       -18.7388       -2.50784       
C              -7.95901       -14.1256       -2.51659       
C              -15.9605       -7.16318       -2.42187       
H              -6.53012       -7.22775       2.43453        
H              -8.60644       -17.6052       2.47074        
H              -12.6265       -22.2267       2.4726         
H              -10.5955       -11.8069       2.49138        
H              -12.5279       -5.99289       2.50754        
H              -14.611        -16.4319       2.51407        
12
R1=3, R2=3; v1 = 0.8, v2 = 0.04; Energy = -1.66868
C              -12.5132       -12.1987       -2.49144       
C              -18.1159       -9.7176        -2.46275       
C              -17.469        -15.8032       -2.47093       
C              -11.8717       -18.2845       -2.50745       
C              -6.91539       -14.6931       -2.50423       
C              -7.54886       -8.60844       -2.50381       
H              -9.63519       -5.74096       2.47663        
H              -8.34526       -17.9317       2.48218        
H              -13.302        -21.5305       2.47282        
H              -8.98332       -11.835        2.49395        
H              -14.578        -9.34844       2.5116         
H              -13.9326       -15.4379       2.50378        
12
R1=3, R2=3; v1 = 0.8, v2 = 0.04; Energy = -1.66868
C              -12.526        -12.2881       -2.4915        
C              -18.1724       -9.9081        -2.46309       
C              -17.4162       -15.9811       -2.4712        
C              -11.7753       -18.3615       -2.50741       
C              -6.88422       -14.6816       -2.50393       
C              -7.62682       -8.60935       -2.50368       
H              -9.76472       -5.77963       2.47649        
H              -8.25605       -17.9453       2.48244        
H              -13.1473       -21.6326       2.47275        
H              -9.00346       -11.861        2.49408        
H              -14.6419       -9.47535       2.51139        
H              -13.8873       -15.5523       2.50368        
12
R1=3, R2=3; v1 = 0.8, v2 = 0.04; Energy = -1.66918
C              -16.6238       -6.25203       -2.45631       
C              -4.8467        -17.386        -2.48511       
C              -16.0074       -12.341        -2.45956       
C              -10.4236       -14.8515       -2.4921        
C              -5.45186       -11.2902       -2.522         
C              -11.0344       -8.7614        -2.50333       
H              -7.48116       -8.39555       2.46817        
H              -6.8903        -14.4889       2.49486        
H              -11.8682       -18.0606       2.50408        
H              -12.4609       -11.9627       2.50847        
H              -1.90604       -10.9304       2.4492         
H              -13.0526       -5.86501       2.49369        
12
R1=3, R2=3; v1 = 0.8, v2 = 0.04; Energy = -1.66918
C              -16.6238       -6.2521        -2.45641       
C              -4.84676       -17.3861       -2.48502       
C              -16.0074       -12.3411       -2.45947       
C              -10.4236       -14.8516       -2.49203       
C              -5.45186       -11.2903       -2.52206       
C              -11.0344       -8.76149       -2.50341       
H              -7.48114       -8.39547       2.46807        
H              -6.8903        -14.4888       2.49489        
H              -11.8682       -18.0605       2.50426        
H              -12.4609       -11.9626       2.5085         
H              -1.90603       -10.9304       2.44915        
H              -13.0526       -5.86495       2.49355        
12
R1=3, R2=3; v1 = 0.8, v2 = 0.04; Energy = -1.66918
C              -16.6238       -6.25211       -2.45641       
C              -4.84676       -17.3861       -2.48501       
C              -16.0074       -12.3411       -2.45946       
C              -10.4236       -14.8516       -2.49202       
C              -5.45186       -11.2903       -2.52207       
C              -11.0344       -8.7615        -2.50342       
H              -7.48113       -8.39546       2.46805        
H              -6.89029       -14.4888       2.49489        
H              -11.8682       -18.0605       2.50428        
H              -12.4609       -11.9626       2.50851        
H              -1.90603       -10.9304       2.44914        
H              -13.0526       -5.86494       2.49353        
12
R1=3, R2=3; v1 = 0.8, v2 = 0.04; Energy = -1.66918
C              -16.6238       -6.25211       -2.45642       
C              -4.84677       -17.3861       -2.485         
C              -16.0074       -12.3411       -2.45946       
C              -10.4236       -14.8516       -2.49201       
C              -5.45187       -11.2903       -2.52207       
C              -11.0344       -8.7615        -2.50343       
H              -7.48113       -8.39546       2.46805        
H              -6.89029       -14.4888       2.49489        
H              -11.8682       -18.0605       2.50429        
H              -12.4609       -11.9626       2.50851        
H              -1.90603       -10.9304       2.44914        
H              -13.0526       -5.86494       2.49353        
12
R1=3, R2=3; v1 = 0.8, v2 = 0.04; Energy = -1.66918
C              -16.6238       -6.25212       -2.45642       
C              -4.84677       -17.3861       -2.485         
C              -16.0074       -12.3411       -2.45946       
C              -10.4236       -14.8516       -2.49201       
C              -5.45187       -11.2903       -2.52207       
C              -11.0344       -8.76151       -2.50343       
H              -7.48113       -8.39546       2.46804        
H              -6.89029       -14.4888       2.4949         
H              -11.8682       -18.0605       2.5043         
H              -12.4609       -11.9626       2.50851        
H              -1.90603       -10.9304       2.44913        
H              -13.0526       -5.86493       2.49352        
12
R1=3, R2=3; v1 = 0.8, v2 = 0.04; Energy = -1.66918
C              -16.397        -6.11121       -2.45632       
C              -5.01016       -17.6441       -2.48514       
C              -15.9906       -12.2178       -2.45935       
C              -10.4965       -14.9191       -2.49204       
C              -5.4051        -11.531        -2.52213       
C              -10.8973       -8.8116        -2.50336       
H              -7.33349       -8.56813       2.46805        
H              -6.95263       -14.6782       2.49482        
H              -12.0504       -18.0765       2.50426        
H              -12.433        -11.9618       2.50856        
H              -1.8489        -11.2933       2.44903        
H              -12.8146       -5.84747       2.49368        
12
R1=3, R2=3; v1 = 0.8, v2 = 0.04; Energy = -1.66977
C              -9.12658       -6.44994       -2.50644       
C              -6.39503       -11.9306       -2.4605        
C              -9.77423       -17.0378       -2.44118       
C              -12.5071       -11.5575       -2.49123       
C              -3.01543       -6.8243        -2.47421       
C              -5.74763       -1.34238       -2.51442       
H              -15.0466       -2.51535       2.39894        
H              -6.20504       -8.37029       2.51281        
H              -12.3178       -7.99524       2.4791         
H              -9.58396       -13.4744       2.52796        
H              -2.82209       -3.26673       2.4994         
H              -8.93631       -2.8917        2.4698         
12
R1=3, R2=3; v1 = 0.8, v2 = 0.04; Energy = -1.66977
C              -9.13096       -6.49069       -2.50654       
C              -6.42232       -11.9827       -2.46028       
C              -9.82288       -17.0757       -2.44118       
C              -12.5327       -11.5841       -2.49158       
C              -3.02143       -6.89056       -2.47377       
C              -5.73072       -1.39729       -2.51433       
H              -15.035        -2.53136       2.39891        
H              -6.21793       -8.42313       2.51297        
H              -12.3291       -8.02257       2.47875        
H              -9.61816       -13.5131       2.52793        
H              -2.81375       -3.33373       2.4998         
H              -8.92632       -2.93316       2.46966        
12
R1=3, R2=3; v1 = 0.8, v2 = 0.04; Energy = -1.66977
C              -9.13575       -6.53154       -2.50658       
C              -6.44922       -12.0344       -2.4602        
C              -9.87031       -17.1137       -2.44113       
C              -12.558        -11.6112       -2.49156       
C              -3.02788       -6.95601       -2.47373       
C              -5.715         -1.45186       -2.51445       
H              -15.0239       -2.54849       2.39891        
H              -6.23059       -8.4756        2.513          
H              -12.34         -8.0505        2.47872        
H              -9.65125       -13.5519       2.52795        
H              -2.80597       -3.39994       2.49976        
H              -8.91689       -2.97477       2.46951        
12
R1=3, R2=3; v1 = 0.8, v2 = 0.04; Energy = -1.66977
C              -9.15599       -6.69554       -2.50656       
C              -6.55432       -12.239        -2.46026       
C              -10.053        -17.2651       -2.44116       
C              -12.6559       -11.722        -2.49154       
C              -3.05536       -7.21379       -2.47381       
C              -5.65764       -1.66903       -2.51444       
H              -14.9821       -2.62235       2.39891        
H              -6.28096       -8.68404       2.51295        
H              -12.3832       -8.16505       2.47873        
H              -9.77925       -13.7071       2.52794        
H              -2.77872       -3.66159       2.49971        
H              -8.88238       -3.14259       2.46959        
12
R1=3, R2=3; v1 = 0.8, v2 = 0.04; Energy = -1.66977
C              -8.86699       -6.69629       -2.50663       
C              -6.48389       -12.3372       -2.4602        
C              -10.1762       -17.2228       -2.44103       
C              -12.5606       -11.5822       -2.49159       
C              -2.79125       -7.45249       -2.47377       
C              -5.17493       -1.81029       -2.5145        
H              -14.5297       -2.3985        2.39894        
H              -6.07194       -8.7955        2.51297        
H              -12.1493       -8.0385        2.47864        
H              -9.76378       -13.6781       2.52799        
H              -2.37613       -3.91377       2.49971        
H              -8.45487       -3.15666       2.46949        
12
R1=3, R2=3; v1 = 0.8, v2 = 0.04; Energy = -1.6705
C              -7.66691       -3.21276       -2.47          
C              -10.3073       2.3104         -2.52613       
C              -13.7724       -2.73878       -2.47762       
C              -11.1299       -8.26229       -2.42152       
C              -1.56529       -3.69482       -2.43763       
C              -4.20262       1.83329        -2.52199       
H              -13.5002       0.837944       2.47941        
H              -10.0427       5.88965        2.42973        
H              -10.8563       -4.68394       2.53564        
H              -3.93964       5.42609        2.42479        
H              -1.28346       -0.0888086     2.49673        
H              -7.39273       0.367421       2.48857        
12
R1=3, R2=3; v1 = 0.8, v2 = 0.04; Energy = -1.6705
C              -7.66691       -3.21275       -2.46997       
C              -10.3073       2.3104         -2.52615       
C              -13.7724       -2.73879       -2.47762       
C              -11.1299       -8.2623        -2.42151       
C              -1.56528       -3.69484       -2.4376        
C              -4.2026        1.83329        -2.52199       
H              -13.5002       0.83796        2.47941        
H              -10.0427       5.88966        2.4297         
H              -10.8563       -4.68395       2.53564        
H              -3.93966       5.42609        2.42478        
H              -1.28345       -0.0888012     2.49674        
H              -7.39274       0.367424       2.48858        
12
R1=3, R2=3; v1 = 0.8, v2 = 0.04; Energy = -1.6705
C              -7.6669        -3.21276       -2.46996       
C              -10.3073       2.31039        -2.52616       
C              -13.7724       -2.73879       -2.47763       
C              -11.1299       -8.26231       -2.4215        
C              -1.56528       -3.69486       -2.43756       
C              -4.20259       1.83327        -2.52199       
H              -13.5002       0.837972       2.47938        
H              -10.0427       5.88967        2.42967        
H              -10.8563       -4.68393       2.53564        
H              -3.93967       5.4261         2.42477        
H              -1.28346       -0.0887888     2.49676        
H              -7.39274       0.367436       2.48858        
12
R1=3, R2=3; v1 = 0.8, v2 = 0.04; Energy = -1.6705
C              -7.6669        -3.21278       -2.46996       
C              -10.3073       2.31038        -2.52617       
C              -13.7724       -2.7388        -2.47763       
C              -11.1299       -8.2623        -2.42149       
C              -1.56527       -3.69487       -2.43755       
C              -4.2026        1.83326        -2.52199       
H              -13.5002       0.837972       2.47937        
H              -10.0427       5.88968        2.42965        
H              -10.8563       -4.68392       2.53565        
H              -3.93966       5.42611        2.42477        
H              -1.28346       -0.0887856     2.49677        
H              -7.39275       0.367442       2.48858        
12
R1=3, R2=3; v1 = 0.8, v2 = 0.04; Energy = -1.6705
C              -7.66689       -3.21279       -2.46993       
C              -10.3073       2.31038        -2.5262        
C              -13.7724       -2.73882       -2.47764       
C              -11.1299       -8.26232       -2.42146       
C              -1.56526       -3.6949        -2.43748       
C              -4.20257       1.83325        -2.52199       
H              -13.5002       0.837995       2.47934        
H              -10.0427       5.8897         2.4296         
H              -10.8563       -4.6839        2.53565        
H              -3.93968       5.42613        2.42474        
H              -1.28347       -0.0887684     2.4968         
H              -7.39276       0.367454       2.48858        
12
R1=3, R2=3; v1 = 0.8, v2 = 0.04; Energy = -1.6705
C              -7.66689       -3.2128        -2.46994       
C              -10.3073       2.31037        -2.5262        
C              -13.7724       -2.73881       -2.47765       
C              -11.1299       -8.26232       -2.42146       
C              -1.56526       -3.6949        -2.43748       
C              -4.20257       1.83323        -2.52199       
H              -13.5002       0.837998       2.47933        
H              -10.0427       5.8897         2.4296         
H              -10.8563       -4.68391       2.53566        
H              -3.93968       5.42613        2.42474        
H              -1.28347       -0.0887667     2.4968         
H              -7.39276       0.36746        2.48858        
12
R1=3, R2=3; v1 = 0.8, v2 = 0.04; Energy = -1.6705
C              -7.66688       -3.2128        -2.46993       
C              -10.3073       2.31037        -2.52621       
C              -13.7724       -2.73882       -2.47765       
C              -11.1299       -8.26233       -2.42144       
C              -1.56526       -3.69491       -2.43746       
C              -4.20257       1.83323        -2.52199       
H              -13.5002       0.838004       2.47933        
H              -10.0427       5.8897         2.42958        
H              -10.8563       -4.68389       2.53566        
H              -3.93968       5.42613        2.42473        
H              -1.28348       -0.0887608     2.49681        
H              -7.39276       0.367465       2.48858        
12
R1=3, R2=3; v1 = 0.8, v2 = 0.04; Energy = -1.6705
C              -7.66688       -3.2128        -2.46993       
C              -10.3073       2.31036        -2.52621       
C              -13.7724       -2.73881       -2.47765       
C              -11.1299       -8.26233       -2.42144       
C              -1.56526       -3.69491       -2.43746       
C              -4.20257       1.83322        -2.52199       
H              -13.5002       0.838007       2.47932        
H              -10.0427       5.88971        2.42958        
H              -10.8563       -4.6839        2.53567        
H              -3.93968       5.42614        2.42473        
H              -1.28348       -0.0887613     2.49681        
H              -7.39276       0.367466       2.48857        
12
R1=3, R2=3; v1 = 0.8, v2 = 0.04; Energy = -1.6705
C              -7.66688       -3.21281       -2.46992       
C              -10.3073       2.31036        -2.52622       
C              -13.7724       -2.73882       -2.47766       
C              -11.1299       -8.26233       -2.42143       
C              -1.56525       -3.69491       -2.43745       
C              -4.20256       1.83322        -2.52199       
H              -13.5002       0.838012       2.47931        
H              -10.0427       5.88971        2.42957        
H              -10.8563       -4.68389       2.53567        
H              -3.93968       5.42614        2.42472        
H              -1.28348       -0.0887583     2.49682        
H              -7.39277       0.36747        2.48857        
12
R1=3, R2=3; v1 = 0.8, v2 = 0.04; Energy = -1.6705
C              -7.66688       -3.21281       -2.46992       
C              -10.3073       2.31035        -2.52622       
C              -13.7724       -2.73882       -2.47766       
C              -11.1299       -8.26233       -2.42143       
C              -1.56525       -3.69492       -2.43744       
C              -4.20256       1.83322        -2.52199       
H              -13.5002       0.838016       2.47931        
H              -10.0427       5.88972        2.42956        
H              -10.8563       -4.68389       2.53567        
H              -3.93969       5.42614        2.42472        
H              -1.28348       -0.0887562     2.49682        
H              -7.39277       0.367473       2.48857        
12
R1=3, R2=3; v1 = 0.8, v2 = 0.04; Energy = -1.6705
C              -7.77987       -3.18379       -2.46996       
C              -10.4433       2.32829        -2.52621       
C              -13.8873       -2.73532       -2.47756       
C              -11.2218       -8.24775       -2.42139       
C              -1.67628       -3.64038       -2.4374        
C              -4.33667       1.87667        -2.52208       
H              -13.63         0.842616       2.47938        
H              -10.1937       5.90875        2.42956        
H              -10.963        -4.66816       2.5357         
H              -4.08877       5.47077        2.42455        
H              -1.40952       -0.0329449     2.49678        
H              -7.52064       0.397646       2.48853        
12
R1=3, R2=3; v1 = 0.8, v2 = 0.04; Energy = -1.6705
C              -8.21599       -3.06496       -2.46998       
C              -11.0031       2.38561        -2.52616       
C              -14.332        -2.75438       -2.47749       
C              -11.5428       -8.20526       -2.42136       
C              -2.10365       -3.38382       -2.43737       
C              -4.8878        2.07185        -2.52212       
H              -14.1554       0.828426       2.47945        
H              -10.8343       5.97079        2.4296         
H              -11.3648       -4.62078       2.53572        
H              -4.72105       5.67066        2.42451        
H              -1.91818       0.228857       2.49668        
H              -8.03754       0.521385       2.48853        
12
R1=3, R2=3; v1 = 0.8, v2 = 0.04; Energy = -1.6705
C              -8.32153       -3.03453       -2.46991       
C              -11.1463       2.39666        -2.52623       
C              -14.4395       -2.76624       -2.47766       
C              -11.6127       -8.19771       -2.42141       
C              -2.20713       -3.31106       -2.43741       
C              -5.02896       2.12521        -2.52199       
H              -14.2879       0.817737       2.47929        
H              -11.0023       5.98291        2.42954        
H              -11.4597       -4.61208       2.53568        
H              -4.88714       5.72496        2.4247         
H              -2.04687       0.302562       2.49684        
H              -8.16805       0.55296        2.48857        
12
R1=3, R2=3; v1 = 0.8, v2 = 0.04; Energy = -1.70873
C              -7.31511       -4.92316       -2.48891       
C              -10.0463       0.552745       -2.51896       
C              -13.4277       -4.55345       -2.48385       
C              -10.6913       -10.0325       -2.448         
C              -1.20202       -5.29524       -2.48909       
C              -3.93485       0.185007       -2.51014       
H              -13.2088       -0.987765      2.48429        
H              -9.82359       4.11596        2.44799        
H              -4.366         -6.85048       2.50976        
H              -10.4766       -6.46889       2.51906        
H              -0.984126      -1.74516       2.48845        
H              -7.0969        -1.36761       2.48879        
12
R1=3, R2=3; v1 = 0.8, v2 = 0.04; Energy = -1.70873
C              -9.80599       -10.023        -2.51015       
C              -3.9744        -8.14885       -2.48875       
C              0.56553        -12.2584       -2.484         
C              -5.26572       -14.1303       -2.51918       
C              -8.51336       -4.03712       -2.48865       
C              1.85478        -6.27132       -2.44767       
H              -0.54055       -8.91894       2.51917        
H              -7.66683       -16.7727       2.44767        
H              -1.8342        -14.9051       2.48396        
H              -5.0716        -4.80134       2.51016        
H              -6.36734       -10.788        2.48875        
H              -10.9026       -6.67228       2.48869        
12
R1=3, R2=3; v1 = 0.8, v2 = 0.04; Energy = -1.70873
C              -7.29388       -3.97699       -2.50989       
C              -1.16914       -4.0643        -2.48886       
C              1.81993        -9.40893       -2.4841        
C              -4.30379       -9.31965       -2.51899       
C              4.95436        -4.14748       -2.44805       
C              -4.15652       1.28211        -2.4888        
H              1.83897        -5.89095       2.51898        
H              -1.13897       -0.541497      2.50991        
H              -1.29939       -11.1501       2.48405        
H              -7.42301       -11.0562       2.44809        
H              -4.27957       -5.80045       2.48885        
H              -7.26215       -0.451353      2.4888         
12
R1=3, R2=3; v1 = 0.8, v2 = 0.04; Energy = -1.70873
C              -7.29387       -3.97699       -2.5099        
C              -1.16914       -4.06428       -2.48886       
C              1.81992        -9.40892       -2.48408       
C              -4.30377       -9.31965       -2.51898       
C              4.95437        -4.14748       -2.44805       
C              -4.15651       1.28214        -2.4888        
H              1.83897        -5.89095       2.51897        
H              -1.13898       -0.541499      2.5099         
H              -1.2994        -11.1501       2.48406        
H              -7.42302       -11.0562       2.44806        
H              -4.27957       -5.80045       2.48887        
H              -7.26215       -0.451352      2.48881        
12
R1=3, R2=3; v1 = 0.8, v2 = 0.04; Energy = -1.70873
C              -7.29386       -3.97698       -2.50991       
C              -1.16913       -4.06428       -2.48886       
C              1.81993        -9.40893       -2.48408       
C              -4.30377       -9.31965       -2.51898       
C              4.95436        -4.14748       -2.44805       
C              -4.15651       1.28214        -2.48879       
H              1.83896        -5.89095       2.51898        
H              -1.13899       -0.541499      2.50991        
H              -1.2994        -11.1501       2.48406        
H              -7.42302       -11.0562       2.44805        
H              -4.27958       -5.80046       2.48886        
H              -7.26216       -0.451353      2.4888         
12
R1=3, R2=3; v1 = 0.8, v2 = 0.04; Energy = -1.70873
C              -7.29386       -3.97698       -2.50992       
C              -1.16913       -4.06428       -2.48886       
C              1.81993        -9.40892       -2.48407       
C              -4.30376       -9.31965       -2.51899       
C              4.95437        -4.14749       -2.44804       
C              -4.1565        1.28214        -2.48879       
H              1.83896        -5.89095       2.51899        
H              -1.13899       -0.541502      2.50992        
H              -1.29941       -11.1501       2.48406        
H              -7.42302       -11.0562       2.44804        
H              -4.27959       -5.80046       2.48886        
H              -7.26216       -0.451355      2.4888         
12
R1=3, R2=3; v1 = 0.8, v2 = 0.04; Energy = -1.70873
C              -7.29386       -3.97697       -2.50992       
C              -1.16913       -4.06428       -2.48885       
C              1.81993        -9.40893       -2.48407       
C              -4.30376       -9.31964       -2.51899       
C              4.95437        -4.14748       -2.44804       
C              -4.1565        1.28215        -2.48879       
H              1.83896        -5.89095       2.51899        
H              -1.139         -0.541503      2.50992        
H              -1.29941       -11.1501       2.48406        
H              -7.42302       -11.0562       2.44804        
H              -4.27959       -5.80046       2.48885        
H              -7.26217       -0.451356      2.48879        
12
R1=3, R2=3; v1 = 0.8, v2 = 0.04; Energy = -1.70873
C              -7.29385       -3.97697       -2.50993       
C              -1.16913       -4.06428       -2.48885       
C              1.81994        -9.40892       -2.48406       
C              -4.30376       -9.31964       -2.519         
C              4.95438        -4.14749       -2.44802       
C              -4.15649       1.28215        -2.48878       
H              1.83895        -5.89095       2.519          
H              -1.13901       -0.541507      2.50993        
H              -1.29942       -11.1501       2.48406        
H              -7.42302       -11.0562       2.44802        
H              -4.27959       -5.80046       2.48885        
H              -7.26217       -0.451359      2.48879        
12
R1=3, R2=3; v1 = 0.8, v2 = 0.04; Energy = -1.70873
C              -7.29384       -3.97697       -2.50993       