12
R1=3, R2=3; Chi = 0.8, Epsilon = 0.04; Energy = 6.3599
C              -9.11828       3.85104        -8.66943       
C              19.7185        8.41727        -5.9575        
C              -4.36552       17.3271        -9.74233       
C              -16.1093       1.06536        -2.39348       
C              -19.688        4.70273        -12.5202       
C              -12.1097       12.1847        -14.8274       
H              -14.1925       19.2707        -3.94105       
H              20.5216        21.5442        6.6972         
H              20.1027        1.15051        5.34416        
H              19.9497        -2.72784       -9.50885       
H              -11.9769       0.19121        7.81353        
H              19.9123        -15.13         11.424         
12
R1=3, R2=3; Chi = 0.8, Epsilon = 0.04; Energy = -1.42384
C              -13.592        4.50039        -2.4857        
C              -18.88         7.60185        -2.56061       
C              -13.581        10.6245        -2.33355       
C              21.8541        3.24845        -2.27104       
C              -18.2662       2.55408        -5.94009       
C              -15.2201       7.66451        -7.45678       
H              -17.4001       10.6787        2.49003        
H              22.1542        13.4748        2.39879        
H              22.4143        7.35901        2.29154        
H              -17.1573       4.55911        2.47419        
H              -12.0872       1.12858        2.39815        
H              -17.5942       -1.54698       2.3982         
12
R1=3, R2=3; Chi = 0.8, Epsilon = 0.04; Energy = -1.51386
C              -6.47862       5.08249        -2.41547       
C              -16.6181       1.98885        -2.52546       
C              -12.4418       6.46622        -2.44238       
C              22.3447        2.99715        -2.39948       
C              -10.6572       0.607431       -2.52421       
C              -13.2195       3.09812        -7.49556       
H              -7.29569       1.52641        2.49858        
H              -11.509        -2.91727       2.40758        
H              -16.6758       1.90195        7.46444        
H              -19.2113       4.37605        2.47097        
H              -13.2547       2.94905        2.49644        
H              -17.4654       -1.495         2.43243        
12
R1=3, R2=3; Chi = 0.8, Epsilon = 0.04; Energy = -1.51386
C              -6.61264       5.15041        -2.41506       
C              -16.7004       1.8921         -2.52597       
C              -12.5975       6.43693        -2.44229       
C              22.2455        2.79272        -2.39797       
C              -10.7179       0.607942       -2.52385       
C              -13.3196       3.05666        -7.4956        
H              -7.37254       1.58202        2.49929        
H              -11.5127       -2.92995       2.40802        
H              -16.7585       1.8046         7.4639         
H              -19.3332       4.23669        2.46989        
H              -13.354        2.90709        2.49644        
H              -17.4915       -1.60504       2.43193        
12
R1=3, R2=3; Chi = 0.8, Epsilon = 0.04; Energy = -1.51386
C              -6.74936       5.21729        -2.41527       
C              -16.7826       1.7947         -2.52596       
C              -12.7545       6.4059         -2.44217       
C              22.1495        2.59745        -2.39841       
C              -10.7799       0.608384       -2.52372       
C              -13.4211       3.01428        -7.49552       
H              -7.45089       1.63737        2.49935        
H              -11.5165       -2.94193       2.40825        
H              -16.8392       1.7054         7.46393        
H              -19.4535       4.09529        2.47012        
H              -13.4533       2.86411        2.49652        
H              -17.5162       -1.71537       2.43169        
12
R1=3, R2=3; Chi = 0.8, Epsilon = 0.04; Energy = -1.59264
C              -7.66966       5.73098        -2.4242        
C              -17.3726       1.45808        -2.49967       
C              -13.7548       6.39522        -2.42465       
C              21.5389        2.11902        -2.45432       
C              -11.2865       0.789731       -2.52929       
C              -19.842        7.05996        -2.42748       
H              -8.02935       2.09025        2.48133        
H              -11.6798       -2.82426       2.39734        
H              -17.347        1.30936        7.49183        
H              -20.1954       3.49226        2.53141        
H              -14.1147       2.7917         2.50819        
H              -17.7623       -2.12719       2.44188        
12
R1=3, R2=3; Chi = 0.8, Epsilon = 0.04; Energy = -1.59269
C              -7.73349       5.78185        -2.4246        
C              -17.4317       1.49797        -2.49995       
C              -13.8193       6.4392         -2.42433       
C              21.479         2.15251        -2.45504       
C              -11.3449       0.836552       -2.5292        
C              -19.9071       7.09712        -2.42697       
H              -8.0894        2.14139        2.48138        
H              -11.7335       -2.77784       2.39746        
H              21.7765        8.88173        2.39996        
H              -20.2572       3.52775        2.53125        
H              -14.1757       2.83493        2.50832        
H              -17.8169       -2.08854       2.44112        
12
R1=3, R2=3; Chi = 0.8, Epsilon = 0.04; Energy = -1.63027
C              -5.95109       5.55405        -2.44841       
C              -13.718        -1.66607       -2.49721       
C              -11.9224       4.18532        -2.49654       
C              -9.5418        -6.14823       -2.44869       
C              -7.74898       -0.296343      -2.44572       
C              -17.8922       2.81623        -2.53168       
H              -9.377         6.61075        2.50767        
H              -12.9727       -5.1032        2.50637        
H              -15.3416       5.23657        2.47138        
H              -13.5491       11.0901        2.39893        
H              -11.1732       0.753336       2.51334        
H              -17.1391       -0.619529      2.47057        
12
R1=3, R2=3; Chi = 0.8, Epsilon = 0.04; Energy = -1.63027
C              -5.88401       5.35549        -2.44849       
C              -13.7797       -1.72355       -2.49717       
C              -11.879        4.09455        -2.49657       
C              -9.68492       -6.28023       -2.4486        
C              -7.787         -0.461576      -2.44587       
C              -17.8725       2.83321        -2.53166       
H              -9.29025       6.47378        2.50759        
H              -13.0964       -5.17348       2.50647        
H              -15.2786       5.20728        2.47134        
H              -13.3809       11.0276        2.39886        
H              -11.1917       0.649663       2.5133         
H              -17.1813       -0.615488      2.47062        
12
R1=3, R2=3; Chi = 0.8, Epsilon = 0.04; Energy = -1.63027
C              -5.74944       4.94238        -2.44863       
C              -13.9081       -1.83187       -2.49705       
C              -11.788        3.90993        -2.49674       
C              -9.98919       -6.54067       -2.44843       
C              -7.87183       -0.798244      -2.44574       
C              -17.8251       2.87685        -2.53172       
H              -9.11093       6.18961        2.50729        
H              -13.3561       -5.30499       2.5067         
H              -15.143        5.15107        2.47115        
H              -13.026        10.8953        2.39886        
H              -11.2318       0.441734       2.51333        
H              -17.2651       -0.595354      2.47071        
12
R1=3, R2=3; Chi = 0.8, Epsilon = 0.04; Energy = -1.66918
C              -5.64198       6.07387        -2.44895       
C              -14.3437       0.0116844      -2.50854       
C              -11.7435       5.54812        -2.49494       
C              -10.838        -5.01241       -2.49334       
C              -8.23995       0.527866       -2.46781       
C              -17.8488       5.03661        -2.50453       
H              -8.57399       4.0474         2.5222         
H              -13.8075       -7.03449       2.45629        
H              -14.6679       3.53207        2.49191        
H              -12.0683       9.07883        2.48485        
H              -11.1818       -1.49875       2.50356        
H              -17.2885       -2.00085       2.45935        
12
R1=3, R2=3; Chi = 0.8, Epsilon = 0.04; Energy = -1.66918
C              -5.57232       5.88906        -2.44899       
C              -14.3646       -0.040982      -2.50868       
C              -11.6811       5.4556         -2.49493       
C              -10.9352       -5.11748       -2.49346       
C              -8.2538        0.382968       -2.46796       
C              -17.7934       5.03628        -2.50459       
H              -8.53461       3.90704        2.52213        
H              -13.9347       -7.09463       2.45632        
H              -14.6356       3.48377        2.49185        
H              -11.9525       8.99069        2.48498        
H              -11.2258       -1.59907       2.50342        
H              -17.3394       -2.00904       2.45913        
12
R1=3, R2=3; Chi = 0.8, Epsilon = 0.04; Energy = -1.66918
C              -5.46515       5.64254        -2.44916       
C              -14.3982       -0.0733561     -2.50848       
C              -11.5827       5.35677        -2.49486       
C              -11.0924       -5.2312        -2.49356       
C              -8.27887       0.20285        -2.46806       
C              -17.7033       5.08534        -2.50417       
H              -8.47424       3.73264        2.52208        
H              -14.1384       -7.1354        2.45635        
H              -14.5837       3.45684        2.49206        
H              -11.7684       8.89736        2.48504        
H              -11.2976       -1.70688       2.50339        
H              -17.4193       -1.96906       2.45953        
12
R1=3, R2=3; Chi = 0.8, Epsilon = 0.04; Energy = -1.66918
C              -6.20718       5.7214         -2.44922       
C              -15.0112       -0.191345      -2.50853       
C              -12.3169       5.2999         -2.49494       
C              -11.5918       -5.27454       -2.49353       
C              -8.89947       0.22059        -2.46809       
C              -18.4299       4.89279        -2.50429       
H              -9.1732        3.74529        2.52203        
H              -14.5945       -7.24589       2.45652        
H              -15.275        3.33388        2.492          
H              -12.5813       8.83556        2.48494        
H              -11.875        -1.75558       2.50339        
H              -17.9894       -2.15373       2.45947        
12
R1=3, R2=3; Chi = 0.8, Epsilon = 0.04; Energy = -1.66918
C              -6.33128       5.86112        -2.44915       
C              -15.1059       -0.0950005     -2.50852       
C              -12.4388       5.40951        -2.49489       
C              -11.6615       -5.16125       -2.4936        
C              -8.99639       0.347108       -2.46805       
C              -18.5498       4.97215        -2.50431       
H              -9.28751       3.87034        2.52206        
H              -14.6545       -7.14744       2.45639        
H              -15.3872       3.42883        2.49199        
H              -12.7206       8.94374        2.48504        
H              -11.9622       -1.64381       2.5034         
H              -18.0745       -2.0721        2.45943        
12
R1=3, R2=3; Chi = 0.8, Epsilon = 0.04; Energy = -1.66961
C              -6.14972       6.35049        -2.45736       
C              -14.4358       -0.265647      -2.50107       
C              -12.2047       5.43048        -2.50487       
C              -10.6183       -5.0544        -2.44934       
C              -8.38128       0.646786       -2.45669       
C              -18.2634       4.51318        -2.52912       
H              -8.9501        4.16088        2.5194         
H              -18.8157       8.04179        2.43817        
H              -15.0014       3.2491         2.48337        
H              -12.7629       8.95208        2.46337        
H              -11.1881       -1.53839       2.52337        
H              -17.2449       -2.45037       2.47109        
12
R1=3, R2=3; Chi = 0.8, Epsilon = 0.04; Energy = -1.66961
C              -6.37888       6.47656        -2.45726       
C              -14.4226       -0.432165      -2.50114       
C              -12.397        5.34022        -2.50489       
C              -10.436        -5.0811        -2.44935       
C              -8.40466       0.696566       -2.45661       
C              -18.4189       4.20644        -2.52924       
H              -9.09912       4.18806        2.51946        
H              -19.0974       7.71295        2.43808        
H              -15.1138       3.06004        2.4833         
H              -13.0812       8.83958        2.46331        
H              -11.1314       -1.58775       2.52337        
H              -17.1518       -2.71616       2.47097        
12
R1=3, R2=3; Chi = 0.8, Epsilon = 0.04; Energy = -1.70921
C              -5.82119       9.89188        -2.46193       
C              -10.2957       14.0757        -2.51181       
C              -11.6774       8.11054        -2.5151        
C              -8.58888       -2.03859       -2.449         
C              -7.20312       3.92683        -2.45652       
C              -13.0596       2.14662        -2.51814       
H              -8.28909       7.32335        2.51502        
H              -14.1496       5.54085        2.45652        
H              -6.8994        13.2867        2.51157        
H              -12.7601       11.5041        2.46176        
H              -9.67794       1.36092        2.51814        
H              -15.536        -0.424425      2.44902        
12
R1=3, R2=3; Chi = 0.8, Epsilon = 0.04; Energy = -1.70921
C              -7.55377       8.20222        -2.46186       
C              -12.1638       12.2363        -2.51165       
C              -13.3482       6.22882        -2.51501       
C              -14.533        0.222559       -2.51804       
C              -8.73836       2.19487        -2.45652       
C              -9.92666       -3.81301       -2.44898       
H              -9.93563       5.55368        2.51509        
H              -15.7342       3.57898        2.45663        
H              -8.74325       11.5596        2.5117         
H              -14.5421       9.58483        2.46192        
H              -11.1272       -0.451241      2.51818        
H              -16.9231       -2.42874       2.44919        
12
R1=3, R2=3; Chi = 0.8, Epsilon = 0.04; Energy = -1.70945
C              -10.5462       16.6048        -2.43328       
C              -6.74142       11.8069        -2.49061       
C              -12.7998       10.911         -2.45647       
C              -11.2492       0.420866       -2.53195       
C              -8.99641       6.11316        -2.51212       
C              -15.0546       5.21854        -2.47483       
H              -6.18836       8.27457        2.47475        
H              -10.6969       -3.1117        2.43323        
H              -14.5016       1.6863         2.49055        
H              -12.2465       7.37991        2.51205        
H              -9.99385       13.0722        2.53189        
H              -8.44315       2.58205        2.45638        
12
R1=3, R2=3; Chi = 0.8, Epsilon = 0.04; Energy = -1.70945
C              -10.7225       16.602         -2.43326       
C              -6.88254       11.8322        -2.49065       
C              -12.9342       10.8918        -2.45642       
C              -11.3062       0.413313       -2.53189       
C              -9.09556       6.12207        -2.51208       
C              -15.1469       5.18282        -2.47479       
H              -6.30344       8.30409        2.47473        
H              -10.728        -3.11508       2.43327        
H              -14.5679       1.65475        2.4906         
H              -12.3548       7.36484        2.51208        
H              -10.1442       13.0736        2.53187        
H              -8.51627       2.59512        2.45644        
12
R1=3, R2=3; Chi = 0.8, Epsilon = 0.04; Energy = -1.70945
C              -10.9498       16.5982        -2.43317       
C              -7.05032       11.8768        -2.49056       
C              -13.0897       10.8607        -2.45635       
C              -11.3306       0.403465       -2.53196       
C              -9.19164       6.13947        -2.51211       
C              -15.2308       5.12446        -2.47476       
H              -6.42709       8.35627        2.47478        
H              -10.7081       -3.11746       2.43316        
H              -14.6075       1.60386        2.49058        
H              -12.4662       7.34126        2.51209        
H              -10.3273       13.0773        2.53197        
H              -8.56815       2.62002        2.45636        
12
R1=3, R2=3; Chi = 0.8, Epsilon = 0.04; Energy = -1.70945
C              -11.1461       16.5936        -2.43311       
C              -7.20247       11.909         -2.49069       
C              -13.2321       10.8363        -2.45629       
C              -11.375        0.395938       -2.53193       
C              -9.28989       6.15176        -2.51217       
C              -15.3192       5.08018        -2.47465       
H              -6.54605       8.39435        2.47461        
H              -10.7193       -3.11901       2.43318        
H              -14.6629       1.56557        2.49067        
H              -12.5754       7.32277        2.51213        
H              -10.4903       13.0786        2.53195        
H              -8.63326       2.63828        2.45629        
