12
R1=3, R2=3; Chi = 0.8, Epsilon = 0.04; Energy = 9.55992
C              -9.05026       3.79917        -8.36594       
C              19.7104        8.4448         -6.26865       
C              -4.24382       17.3611        -9.32691       
C              -16.01         0.834471       -2.40981       
C              -19.7801       4.86669        -12.7422       
C              -12.006        12.5031        -14.847        
H              -14.3509       19.628         -3.98195       
H              20.4667        21.5801        -3.39515       
H              19.8914        1.3215         5.03538        
H              19.8895        -2.78292       -9.17682       
H              -11.9242       0.170692       8.21533        
H              20.1205        -14.616        11.5602        
12
R1=3, R2=3; Chi = 0.8, Epsilon = 0.04; Energy = 6.3599
C              -9.11828       3.85104        -8.66943       
C              19.7185        8.41727        -5.9575        
C              -4.36552       17.3271        -9.74233       
C              -16.1093       1.06536        -2.39348       
C              -19.688        4.70273        -12.5202       
C              -12.1097       12.1847        -14.8274       
H              -14.1925       19.2707        -3.94105       
H              20.5216        21.5442        6.6972         
H              20.1027        1.15051        5.34416        
H              19.9497        -2.72784       -9.50885       
H              -11.9769       0.19121        7.81353        
H              19.9123        -15.13         11.424         
12
R1=3, R2=3; Chi = 0.8, Epsilon = 0.04; Energy = -1.42384
C              -13.592        4.50039        -2.4857        
C              -18.88         7.60185        -2.56061       
C              -13.581        10.6245        -2.33355       
C              21.8541        3.24845        -2.27104       
C              -18.2662       2.55408        -5.94009       
C              -15.2201       7.66451        -7.45678       
H              -17.4001       10.6787        2.49003        
H              22.1542        13.4748        2.39879        
H              22.4143        7.35901        2.29154        
H              -17.1573       4.55911        2.47419        
H              -12.0872       1.12858        2.39815        
H              -17.5942       -1.54698       2.3982         
12
R1=3, R2=3; Chi = 0.8, Epsilon = 0.04; Energy = -1.51386
C              -6.47862       5.08249        -2.41547       
C              -16.6181       1.98885        -2.52546       
C              -12.4418       6.46622        -2.44238       
C              22.3447        2.99715        -2.39948       
C              -10.6572       0.607431       -2.52421       
C              -13.2195       3.09812        -7.49556       
H              -7.29569       1.52641        2.49858        
H              -11.509        -2.91727       2.40758        
H              -16.6758       1.90195        7.46444        
H              -19.2113       4.37605        2.47097        
H              -13.2547       2.94905        2.49644        
H              -17.4654       -1.495         2.43243        
12
R1=3, R2=3; Chi = 0.8, Epsilon = 0.04; Energy = -1.51386
C              -6.61264       5.15041        -2.41506       
C              -16.7004       1.8921         -2.52597       
C              -12.5975       6.43693        -2.44229       
C              22.2455        2.79272        -2.39797       
C              -10.7179       0.607942       -2.52385       
C              -13.3196       3.05666        -7.4956        
H              -7.37254       1.58202        2.49929        
H              -11.5127       -2.92995       2.40802        
H              -16.7585       1.8046         7.4639         
H              -19.3332       4.23669        2.46989        
H              -13.354        2.90709        2.49644        
H              -17.4915       -1.60504       2.43193        
12
R1=3, R2=3; Chi = 0.8, Epsilon = 0.04; Energy = -1.51386
C              -6.74936       5.21729        -2.41527       
C              -16.7826       1.7947         -2.52596       
C              -12.7545       6.4059         -2.44217       
C              22.1495        2.59745        -2.39841       
C              -10.7799       0.608384       -2.52372       
C              -13.4211       3.01428        -7.49552       
H              -7.45089       1.63737        2.49935        
H              -11.5165       -2.94193       2.40825        
H              -16.8392       1.7054         7.46393        
H              -19.4535       4.09529        2.47012        
H              -13.4533       2.86411        2.49652        
H              -17.5162       -1.71537       2.43169        
12
R1=3, R2=3; Chi = 0.8, Epsilon = 0.04; Energy = -1.51386
C              -6.88755       5.28238        -2.41527       
C              -16.864        1.69771        -2.52594       
C              -12.9111       6.37363        -2.44205       
C              22.0559        2.40126        -2.3982        
C              -10.8429       0.608867       -2.52383       
C              -13.5229       2.9719         -7.49548       
H              -7.53104       1.69147        2.49933        
H              -11.522        -2.95307       2.40804        
H              -16.9192       1.60754        7.46389        
H              -19.5719       3.95481        2.47008        
H              -13.5525       2.82084        2.49653        
H              -17.5408       -1.82377       2.43166        
12
R1=3, R2=3; Chi = 0.8, Epsilon = 0.04; Energy = -1.51386
C              -7.02704       5.34502        -2.41509       
C              -16.9447       1.60104        -2.52607       
C              -13.0673       6.33967        -2.44239       
C              21.9646        2.20745        -2.39828       
C              -10.907        0.608754       -2.52398       
C              -13.6245       2.92839        -7.49572       
H              -7.61292       1.74388        2.4992         
H              -11.5294       -2.96356       2.40783        
H              -16.9987       1.51114        7.46378        
H              -19.6882       3.81541        2.46966        
H              -13.6516       2.77727        2.49633        
H              -17.5655       -1.93019       2.43191        
12
R1=3, R2=3; Chi = 0.8, Epsilon = 0.04; Energy = -1.51386
C              -7.16607       5.40151        -2.41524       
C              -17.0255       1.50657        -2.52578       
C              -13.2208       6.30376        -2.44235       
C              21.8755        2.02233        -2.39848       
C              -10.9732       0.606495       -2.52387       
C              -13.726        2.88413        -7.49556       
H              -7.6966        1.79197        2.49917        
H              -11.5406       -2.97483       2.40805        
H              -17.0773       1.41552        7.46409        
H              -19.8022       3.67851        2.47025        
H              -13.7504       2.73293        2.49646        
H              -17.5917       -2.0339        2.43214        
12
R1=3, R2=3; Chi = 0.8, Epsilon = 0.04; Energy = -1.51386
C              -7.30504       5.45459        -2.41522       
C              -17.1054       1.41341        -2.52594       
C              -13.3725       6.2667         -2.44236       
C              21.7885        1.83656        -2.39823       
C              -11.0405       0.603508       -2.52389       
C              -13.8267       2.84007        -7.49563       
H              -7.78202       1.83763        2.49919        
H              -11.5547       -2.98585       2.40806        
H              -17.1564       1.3218         7.46393        
H              -19.9143       3.5439         2.46992        
H              -13.8491       2.68839        2.4964         
H              -17.6191       -2.13501       2.43202        
12
R1=3, R2=3; Chi = 0.8, Epsilon = 0.04; Energy = -1.59264
C              -7.66966       5.73098        -2.4242        
C              -17.3726       1.45808        -2.49967       
C              -13.7548       6.39522        -2.42465       
C              21.5389        2.11902        -2.45432       
C              -11.2865       0.789731       -2.52929       
C              -19.842        7.05996        -2.42748       
H              -8.02935       2.09025        2.48133        
H              -11.6798       -2.82426       2.39734        
H              -17.347        1.30936        7.49183        
H              -20.1954       3.49226        2.53141        
H              -14.1147       2.7917         2.50819        
H              -17.7623       -2.12719       2.44188        
12
R1=3, R2=3; Chi = 0.8, Epsilon = 0.04; Energy = -1.59269
C              -7.73349       5.78185        -2.4246        
C              -17.4317       1.49797        -2.49995       
C              -13.8193       6.4392         -2.42433       
C              21.479         2.15251        -2.45504       
C              -11.3449       0.836552       -2.5292        
C              -19.9071       7.09712        -2.42697       
H              -8.0894        2.14139        2.48138        
H              -11.7335       -2.77784       2.39746        
H              21.7765        8.88173        2.39996        
H              -20.2572       3.52775        2.53125        
H              -14.1757       2.83493        2.50832        
H              -17.8169       -2.08854       2.44112        
12
R1=3, R2=3; Chi = 0.8, Epsilon = 0.04; Energy = -1.59269
C              -7.72085       5.77038        -2.4243        
C              -17.4292       1.50971        -2.49988       
C              -13.8051       6.44233        -2.42458       
C              21.483         2.17872        -2.45475       
C              -11.344        0.833761       -2.52932       
C              -19.8913       7.11472        -2.4284        
H              -8.08537       2.13024        2.48132        
H              -11.742        -2.77973       2.3973         
H              21.8039        8.91269        2.40132        
H              -20.2495       3.54773        2.53093        
H              -14.1699       2.83923        2.50824        
H              -17.8237       -2.07487       2.44178        
12
R1=3, R2=3; Chi = 0.8, Epsilon = 0.04; Energy = -1.59269
C              -7.71021       5.7607         -2.42416       
C              -17.4271       1.51937        -2.4999        
C              -13.7931       6.44474        -2.42469       
C              21.4864        2.20063        -2.45501       
C              -11.3433       0.831309       -2.52911       
C              -19.8779       7.12929        -2.4283        
H              -8.08229       2.12158        2.48165        
H              -11.7485       -2.7812        2.39758        
H              21.8207        8.93381        2.4013         
H              -20.2436       3.56285        2.53087        
H              -14.1654       2.84253        2.50825        
H              -17.8288       -2.06447       2.44174        
12
R1=3, R2=3; Chi = 0.8, Epsilon = 0.04; Energy = -1.59269
C              -7.70166       5.75273        -2.42438       
C              -17.4254       1.5273         -2.49984       
C              -13.7834       6.44672        -2.42468       
C              21.4892        2.21837        -2.4548        
C              -11.3428       0.829293       -2.52916       
C              -19.8672       7.14117        -2.42825       
H              -8.07957       2.11431        2.4815         
H              -11.7537       -2.78251       2.39757        
H              21.8334        8.95052        2.40094        
H              -20.2385       3.57541        2.53098        
H              -14.1615       2.84513        2.50827        
H              -17.8329       -2.05587       2.4418         
12
R1=3, R2=3; Chi = 0.8, Epsilon = 0.04; Energy = -1.59269
C              -7.69533       5.747          -2.42407       
C              -17.4242       1.53337        -2.4999        
C              -13.7762       6.44839        -2.42471       
C              21.4913        2.2318         -2.4547        
C              -11.3423       0.827978       -2.52931       
C              -19.8591       7.15021        -2.4287        
H              -8.07752       2.10848        2.48145        
H              -11.7581       -2.78358       2.39722        
H              21.8468        8.96564        2.40179        
H              -20.2346       3.58533        2.53086        
H              -14.1585       2.84714        2.50816        
H              -17.8362       -2.04909       2.44188        
12
R1=3, R2=3; Chi = 0.8, Epsilon = 0.04; Energy = -1.59269
C              -7.68966       5.74175        -2.42413       
C              -17.4231       1.53862        -2.49985       
C              -13.7698       6.44967        -2.42453       
C              21.4932        2.24373        -2.45466       
C              -11.342        0.826643       -2.52932       
C              -19.8519       7.15812        -2.42827       
H              -8.07572       2.10367        2.48138        
H              -11.7614       -2.7845        2.39721        
H              21.8532        8.97515        2.40112        
H              -20.2312       3.59324        2.53101        
H              -14.1559       2.84874        2.50826        
H              -17.8388       -2.04364       2.44178        
12
R1=3, R2=3; Chi = 0.8, Epsilon = 0.04; Energy = -1.59269
C              -7.68507       5.73747        -2.42412       
C              -17.4221       1.54286        -2.49983       
C              -13.7646       6.45074        -2.42456       
C              21.4947        2.25323        -2.45459       
C              -11.3417       0.825586       -2.5293        
C              -19.8461       7.16447        -2.42822       
H              -8.07428       2.09974        2.48139        
H              -11.7642       -2.78519       2.39725        
H              21.8599        8.98403        2.40087        
H              -20.2285       3.59994        2.53107        
H              -14.1538       2.85016        2.50824        
H              -17.841        -2.03904       2.4418         
12
R1=3, R2=3; Chi = 0.8, Epsilon = 0.04; Energy = -1.54929
C              -7.86311       7.91589        -2.47629       
C              -14.9887       0.0607015      -2.48934       
C              -13.6885       6.04223        -2.48909       
C              -10.4668       -4.06213       -2.47645       
C              -9.15605       1.92494        -2.49365       
C              -19.522        4.17822        -2.48558       
H              -6.7673        4.53586        2.49912        
H              -8.06646       -1.44219       2.49895        
H              -17.1378       6.79295        2.50474        
H              -3.56248       0.709113       6.04412        
H              -12.6038       2.67409        2.50336        
H              -18.4386       0.809234       2.50446        
12
R1=3, R2=3; Chi = 0.8, Epsilon = 0.04; Energy = -1.54929
C              -7.8631        7.91587        -2.47632       
C              -14.9887       0.0607009      -2.48937       
C              -13.6885       6.04222        -2.4891        
C              -10.4668       -4.06212       -2.47644       
C              -9.15602       1.92492        -2.49367       
C              -19.522        4.17821        -2.48558       
H              -6.76727       4.53588        2.49912        
H              -8.06645       -1.44218       2.49898        
H              -17.1378       6.79296        2.50473        
H              -3.5625        0.709105       6.04421        
H              -12.6038       2.67412        2.5033         
H              -18.4386       0.809227       2.50447        
12
R1=3, R2=3; Chi = 0.8, Epsilon = 0.04; Energy = -1.54929
C              -7.8631        7.91585        -2.47633       
C              -14.9887       0.0607166      -2.48937       
C              -13.6885       6.04222        -2.48913       
C              -10.4668       -4.06212       -2.47642       
C              -9.15604       1.92494        -2.49367       
C              -19.522        4.1782         -2.48558       
H              -6.76724       4.53587        2.4991         
H              -8.06645       -1.44218       2.49896        
H              -17.1378       6.79296        2.50471        
H              -3.56254       0.709118       6.04425        
H              -12.6038       2.67412        2.50332        
H              -18.4385       0.809224       2.50447        
12
R1=3, R2=3; Chi = 0.8, Epsilon = 0.04; Energy = -1.54929
C              -7.8631        7.91586        -2.47635       
C              -14.9887       0.0607017      -2.48937       
C              -13.6885       6.04221        -2.48914       
C              -10.4668       -4.06213       -2.47641       
C              -9.15602       1.92491        -2.49368       
C              -19.522        4.17819        -2.48558       
H              -6.76723       4.53588        2.49908        
H              -8.06645       -1.44218       2.49897        
H              -17.1378       6.79296        2.5047         
H              -3.56259       0.709126       6.04434        
H              -12.6038       2.67416        2.50328        
H              -18.4385       0.809231       2.50447        
12
R1=3, R2=3; Chi = 0.8, Epsilon = 0.04; Energy = -1.54929
C              -7.8631        7.91584        -2.47635       
C              -14.9887       0.0607106      -2.48937       
C              -13.6885       6.04221        -2.48916       
C              -10.4668       -4.06214       -2.4764        
C              -9.15603       1.92492        -2.49369       
C              -19.522        4.17818        -2.48558       
H              -6.76721       4.53586        2.49907        
H              -8.06645       -1.44217       2.49897        
H              -17.1378       6.79298        2.50469        
H              -3.56264       0.709141       6.04437        
H              -12.6038       2.67415        2.5033         
H              -18.4385       0.809226       2.50448        
12
R1=3, R2=3; Chi = 0.8, Epsilon = 0.04; Energy = -1.54929
C              -7.8631        7.91586        -2.47637       
C              -14.9887       0.0606948      -2.48937       
C              -13.6885       6.04221        -2.48916       
C              -10.4668       -4.06214       -2.47641       
C              -9.15602       1.9249         -2.4937        
C              -19.522        4.17817        -2.48559       
H              -6.7672        4.53587        2.49906        
H              -8.06644       -1.44218       2.49898        
H              -17.1378       6.79298        2.50468        
H              -3.56268       0.709146       6.04443        
H              -12.6038       2.67417        2.50327        
H              -18.4385       0.809234       2.50448        
12
R1=3, R2=3; Chi = 0.8, Epsilon = 0.04; Energy = -1.54929
C              -7.86311       7.91584        -2.47637       
C              -14.9887       0.0607003      -2.48937       
C              -13.6885       6.0422         -2.48918       
C              -10.4668       -4.06214       -2.4764        
C              -9.15602       1.92492        -2.4937        
C              -19.522        4.17817        -2.48558       
H              -6.76719       4.53586        2.49905        
H              -8.06644       -1.44217       2.49896        
H              -17.1378       6.79298        2.50467        
H              -3.56272       0.70916        6.04447        
H              -12.6038       2.67416        2.50329        
H              -18.4385       0.809234       2.50449        
12
R1=3, R2=3; Chi = 0.8, Epsilon = 0.04; Energy = -1.58929
C              -7.63961       7.88701        -2.47629       
C              -14.5357       -0.170342      -2.48961       
C              -13.4085       5.84613        -2.48926       
C              -9.89682       -4.1611        -2.47619       
C              -8.75911       1.86125        -2.49379       
C              -19.1859       3.81468        -2.48557       
H              -6.4465        4.53997        2.49904        
H              -7.57256       -1.47294       2.49895        
H              -16.8779       6.49699        2.50471        
H              -8.74867       1.85911        7.49878        
H              -12.2271       2.51066        2.50303        
H              -18.0055       0.478212       2.50436        
12
R1=3, R2=3; Chi = 0.8, Epsilon = 0.04; Energy = -1.58929
C              -7.79769       7.88837        -2.476         
C              -14.5881       -0.258285      -2.48912       
C              -13.5395       5.77242        -2.48962       
C              -9.89746       -4.18814       -2.47631       
C              -8.8385        1.84853        -2.49365       
C              -19.2898       3.66578        -2.48559       
H              -6.56058       4.55694        2.49906        
H              -7.60915       -1.46997       2.49919        
H              -17.017        6.37871        2.50432        
H              -8.82803       1.84685        7.49891        
H              -12.3146       2.45336        2.50312        
H              -18.066        0.345762       2.50477        
12
R1=3, R2=3; Chi = 0.8, Epsilon = 0.04; Energy = -1.58929
C              -7.9522        7.88585        -2.476         
C              -14.6421       -0.343492      -2.48925       
C              -13.6676       5.69959        -2.48944       
C              -9.90361       -4.21552       -2.47624       
C              -8.91879       1.8337         -2.49365       
C              -19.3916       3.52254        -2.48557       
H              -6.67438       4.56988        2.49913        
H              -7.64868       -1.46947       2.49916        
H              -17.1523       6.26286        2.50449        
H              -8.90832       1.83203        7.49893        
H              -12.402        2.39557        2.50314        
H              -18.1272       0.217486       2.50465        
12
R1=3, R2=3; Chi = 0.8, Epsilon = 0.04; Energy = -1.58929
C              -8.10265       7.87892        -2.4761        
C              -14.698        -0.42638       -2.48919       
C              -13.7927       5.62748        -2.48951       
C              -9.91552       -4.24396       -2.47628       
C              -8.99998       1.81612        -2.49366       
C              -19.4914       3.38508        -2.48558       
H              -6.78695       4.57783        2.49906        
H              -7.69227       -1.47226       2.49919        
H              -17.2837       6.15101        2.50439        
H              -8.98946       1.81474        7.49891        
H              -12.4894       2.3383         2.50314        
H              -18.1893       0.0948665      2.50471        
12
R1=3, R2=3; Chi = 0.8, Epsilon = 0.04; Energy = -1.5902
C              -6.24418       6.3696         -2.44866       
C              -13.4864       -1.37673       -2.4971        
C              -12.105        4.58604        -2.49684       
C              -9.00652       -5.5554        -2.44853       
C              -7.62791       0.407679       -2.44567       
C              -17.9643       2.80204        -2.53181       
H              -9.73591       7.18437        2.50713        
H              -12.5019       -4.75281       2.5067         
H              -15.5895       5.39557        2.47097        
H              -14.0595       10.8123        4.87929        
H              -11.1172       1.21543        2.51331        
H              -16.9722       -0.57212       2.47067        
12
R1=3, R2=3; Chi = 0.8, Epsilon = 0.04; Energy = -1.5902
C              -6.17245       6.17691        -2.44864       
C              -13.5411       -1.44924       -2.49711       
C              -12.0618       4.48999        -2.49676       
C              -9.13061       -5.70106       -2.44863       
C              -7.65409       0.238535       -2.44578       
C              -17.9497       2.80265        -2.53177       
H              -9.6502        7.0488         2.50726        
H              -12.6123       -4.8412        2.50661        
H              -15.5324       5.35664        2.47107        
H              -13.9422       10.8522        4.65087        
H              -11.1296       1.10345        2.5133         
H              -17.0132       -0.587467      2.47066        
12
R1=3, R2=3; Chi = 0.8, Epsilon = 0.04; Energy = -1.59021
C              -6.09814       5.9766         -2.44864       
C              -13.6002       -1.51837       -2.4971        
C              -12.0164       4.39384        -2.49679       
C              -9.26531       -5.84732       -2.4485        
C              -7.68433       0.0653024      -2.44571       
C              -17.9331       2.81071        -2.5318        
H              -9.56001       6.90975        2.50722        
H              -12.7315       -4.92613       2.50664        
H              -15.4712       5.32163        2.47106        
H              -13.8081       10.8825        4.4187         
H              -11.1441       0.991409       2.51332        
H              -17.0566       -0.595417      2.47062        
12
R1=3, R2=3; Chi = 0.8, Epsilon = 0.04; Energy = -1.59021
C              -6.02532       5.7741         -2.44853       
C              -13.6599       -1.58575       -2.49704       
C              -11.9709       4.29727        -2.4968        
C              -9.40308       -5.99142       -2.44852       
C              -7.71676       -0.107944      -2.44572       
C              -17.9149       2.81991        -2.53185       
H              -9.47011       6.7691         2.50722        
H              -12.852        -5.0084        2.50672        
H              -15.4087       5.28658        2.471          
H              -13.6676       10.9066        4.16391        
H              -11.1594       0.879904       2.51331        
H              -17.0993       -0.601241      2.47068        
12
R1=3, R2=3; Chi = 0.8, Epsilon = 0.04; Energy = -1.63027
C              -5.95109       5.55405        -2.44841       
C              -13.718        -1.66607       -2.49721       
C              -11.9224       4.18532        -2.49654       
C              -9.5418        -6.14823       -2.44869       
C              -7.74898       -0.296343      -2.44572       
C              -17.8922       2.81623        -2.53168       
H              -9.377         6.61075        2.50767        
H              -12.9727       -5.1032        2.50637        
H              -15.3416       5.23657        2.47138        
H              -13.5491       11.0901        2.39893        
H              -11.1732       0.753336       2.51334        
H              -17.1391       -0.619529      2.47057        
12
R1=3, R2=3; Chi = 0.8, Epsilon = 0.04; Energy = -1.63027
C              -5.88401       5.35549        -2.44849       
C              -13.7797       -1.72355       -2.49717       
C              -11.879        4.09455        -2.49657       
C              -9.68492       -6.28023       -2.4486        
C              -7.787         -0.461576      -2.44587       
C              -17.8725       2.83321        -2.53166       
H              -9.29025       6.47378        2.50759        
H              -13.0964       -5.17348       2.50647        
H              -15.2786       5.20728        2.47134        
H              -13.3809       11.0276        2.39886        
H              -11.1917       0.649663       2.5133         
H              -17.1813       -0.615488      2.47062        
12
R1=3, R2=3; Chi = 0.8, Epsilon = 0.04; Energy = -1.63027
C              -5.81849       5.15503        -2.44858       
C              -13.8413       -1.77963       -2.49718       
C              -11.8354       4.00301        -2.49653       
C              -9.82979       -6.40979       -2.44866       
C              -7.82666       -0.626552      -2.44573       
C              -17.8508       2.85061        -2.53165       
H              -9.20387       6.33483        2.5076         
H              -13.2207       -5.24145       2.5064         
H              -15.2142       5.17721        2.47136        
H              -13.2113       10.9621        2.39886        
H              -11.2107       0.546198       2.51336        
H              -17.2222       -0.610091      2.47062        
12
R1=3, R2=3; Chi = 0.8, Epsilon = 0.04; Energy = -1.63027
C              -5.74944       4.94238        -2.44863       
C              -13.9081       -1.83187       -2.49705       
C              -11.788        3.90993        -2.49674       
C              -9.98919       -6.54067       -2.44843       
C              -7.87183       -0.798244      -2.44574       
C              -17.8251       2.87685        -2.53172       
H              -9.11093       6.18961        2.50729        
H              -13.3561       -5.30499       2.5067         
H              -15.143        5.15107        2.47115        
H              -13.026        10.8953        2.39886        
H              -11.2318       0.441734       2.51333        
H              -17.2651       -0.595354      2.47071        
12
R1=3, R2=3; Chi = 0.8, Epsilon = 0.04; Energy = -1.66918
C              -5.64198       6.07387        -2.44895       
C              -14.3437       0.0116844      -2.50854       
C              -11.7435       5.54812        -2.49494       
C              -10.838        -5.01241       -2.49334       
C              -8.23995       0.527866       -2.46781       
C              -17.8488       5.03661        -2.50453       
H              -8.57399       4.0474         2.5222         
H              -13.8075       -7.03449       2.45629        
H              -14.6679       3.53207        2.49191        
H              -12.0683       9.07883        2.48485        