12
R1=3, R2=3; v1 = 0.8, v2 = 0.04; Energy = -1.49983
C              -12.3285       -12.7724       -2.3805        
C              -8.27567       -8.18392       -2.53725       
C              -9.12323       -11.6911       -7.48353       
C              -6.89393       -20.0976       -2.59929       
C              -6.33222       -13.9925       -2.5443        
C              -2.2777        -9.40771       -2.40578       
H              -4.9864        -6.82951       2.44092        
H              -6.22108       -17.1325       2.69574        
H              -9.7054        -22.1622       2.42843        
H              -8.82896       -11.5976       2.50398        
H              -11.0367       -5.88707       2.41832        
H              -12.316        -16.6254       2.38045        
12
R1=3, R2=3; v1 = 0.8, v2 = 0.04; Energy = -1.59051
C              -11.9078       -13.2709       -2.49744       
C              -8.35747       -8.28775       -2.5147        
C              -8.70096       -11.8168       -7.50591       
C              -9.35919       -18.8363       -2.51847       
C              -5.80756       -13.8513       -2.50876       
C              -2.26137       -8.86244       -2.41758       
H              -5.22337       -6.74669       2.50262        
H              -6.13702       -17.3807       2.47615        
H              -9.68644       -22.3721       2.46061        
H              -8.67955       -11.8053       2.48806        
H              -11.33         -6.28482       2.44271        
H              -12.2298       -16.8004       2.48706        
12
R1=3, R2=3; v1 = 0.8, v2 = 0.04; Energy = -1.59051
C              -12.1003       -13.2618       -2.49795       
C              -8.45072       -8.35081       -2.51464       
C              -8.86406       -11.8722       -7.50588       
C              -9.66372       -18.8772       -2.51848       
C              -6.01285       -13.9645       -2.5083        
C              -2.36736       -9.04762       -2.41814       
H              -5.28592       -6.8738        2.50268        
H              -6.41384       -17.4864       2.4766         
H              -10.0627       -22.4057       2.46061        
H              -8.84406       -11.8612       2.48805        
H              -11.3819       -6.28801       2.44284        
H              -12.4938       -16.784        2.48657        
12
R1=3, R2=3; v1 = 0.8, v2 = 0.04; Energy = -1.59051
C              -12.2922       -13.2334       -2.49709       
C              -8.51921       -8.41658       -2.51464       
C              -9.02307       -11.9264       -7.50583       
C              -9.99871       -18.9088       -2.51845       
C              -6.22451       -14.0902       -2.50895       
C              -2.45548       -9.26742       -2.4176        
H              -5.3183        -7.01927       2.5026         
H              -6.71333       -17.6011       2.47592        
H              -10.4856       -22.4262       2.4606         
H              -9.00021       -11.916        2.48812        
H              -11.3977       -6.28096       2.44287        
H              -12.7735       -16.7448       2.48738        
12
R1=3, R2=3; v1 = 0.8, v2 = 0.04; Energy = -1.59051
C              -12.4813       -13.208        -2.49746       
C              -8.5913        -8.48514       -2.5146        
C              -9.18057       -11.9814       -7.50587       
C              -10.3278       -18.9379       -2.51859       
C              -6.43645       -14.2133       -2.50876       
C              -2.55026       -9.48448       -2.41737       
H              -5.35727       -7.1671        2.50284        
H              -7.01181       -17.7112       2.47606        
H              -10.9014       -22.4423       2.46039        
H              -9.15847       -11.9718       2.48807        
H              -11.4167       -6.27953       2.44281        
H              -13.0491       -16.7065       2.48698        
12
R1=3, R2=3; v1 = 0.8, v2 = 0.04; Energy = -1.59051
C              -12.668        -13.1745       -2.49802       
C              -8.65294       -8.55756       -2.51464       
C              -9.33479       -12.0369       -7.50593       
C              -10.6688       -18.9601       -2.51856       
C              -6.65234       -14.3414       -2.50829       
C              -2.64082       -9.71842       -2.41784       
H              -5.38448       -7.32731       2.50278        
H              -7.32197       -17.8224       2.47658        
H              -11.3369       -22.4476       2.46052        
H              -9.31417       -12.0275       2.48801        
H              -11.4176       -6.27624       2.44272        
H              -13.3302       -16.6563       2.48648        
12
R1=3, R2=3; v1 = 0.8, v2 = 0.04; Energy = -1.59051
C              -12.668        -13.1745       -2.498         
C              -8.65292       -8.55754       -2.51465       
C              -9.33481       -12.037        -7.50591       
C              -10.6688       -18.9601       -2.51856       
C              -6.65233       -14.3414       -2.50828       
C              -2.64084       -9.71842       -2.41785       
H              -5.38448       -7.32728       2.50279        
H              -7.32196       -17.8224       2.47655        
H              -11.3369       -22.4476       2.46052        
H              -9.31416       -12.0275       2.48803        
H              -11.4176       -6.27628       2.44272        
H              -13.3302       -16.6563       2.48649        
12
R1=3, R2=3; v1 = 0.8, v2 = 0.04; Energy = -1.59051
C              -12.668        -13.1745       -2.49797       
C              -8.65293       -8.55755       -2.51465       
C              -9.33482       -12.037        -7.50591       
C              -10.6688       -18.9601       -2.51856       
C              -6.65233       -14.3414       -2.5083        
C              -2.64082       -9.71841       -2.41785       
H              -5.38448       -7.32727       2.50278        
H              -7.32196       -17.8224       2.47656        
H              -11.3369       -22.4476       2.46052        
H              -9.31412       -12.0275       2.48803        
H              -11.4176       -6.27629       2.44273        
H              -13.3302       -16.6563       2.4865         
12
R1=3, R2=3; v1 = 0.8, v2 = 0.04; Energy = -1.59051
C              -12.668        -13.1745       -2.49796       
C              -8.65292       -8.55755       -2.51465       
C              -9.33484       -12.037        -7.5059        
C              -10.6688       -18.9601       -2.51855       
C              -6.65233       -14.3414       -2.50829       
C              -2.64083       -9.71841       -2.41785       
H              -5.38448       -7.32725       2.50278        
H              -7.32194       -17.8224       2.47654        
H              -11.3369       -22.4476       2.46051        
H              -9.31411       -12.0275       2.48804        
H              -11.4176       -6.27631       2.44273        
H              -13.3302       -16.6563       2.48652        
12
R1=3, R2=3; v1 = 0.8, v2 = 0.04; Energy = -1.59051
C              -12.668        -13.1745       -2.49794       
C              -8.65293       -8.55755       -2.51465       
C              -9.33486       -12.037        -7.5059        
C              -10.6688       -18.96         -2.51856       
C              -6.65233       -14.3415       -2.5083        
C              -2.64082       -9.71841       -2.41785       
H              -5.38447       -7.32724       2.50277        
H              -7.32194       -17.8224       2.47654        
H              -11.3369       -22.4476       2.46051        
H              -9.31408       -12.0275       2.48805        
H              -11.4177       -6.27632       2.44274        
H              -13.3302       -16.6563       2.48654        
12
R1=3, R2=3; v1 = 0.8, v2 = 0.04; Energy = -1.59051
C              -12.668        -13.1745       -2.49793       
C              -8.65292       -8.55755       -2.51465       
C              -9.33488       -12.037        -7.50589       
C              -10.6688       -18.96         -2.51855       
C              -6.65233       -14.3415       -2.5083        
C              -2.64083       -9.71842       -2.41785       
H              -5.38448       -7.32722       2.50277        
H              -7.32193       -17.8224       2.47653        
H              -11.3369       -22.4476       2.4605         
H              -9.31407       -12.0275       2.48805        
H              -11.4177       -6.27634       2.44274        
H              -13.3302       -16.6563       2.48655        
12
R1=3, R2=3; v1 = 0.8, v2 = 0.04; Energy = -1.59051
C              -12.668        -13.1744       -2.49791       
C              -8.65292       -8.55755       -2.51464       
C              -9.33489       -12.037        -7.50589       
C              -10.6689       -18.96         -2.51855       
C              -6.65233       -14.3415       -2.50831       
C              -2.64083       -9.71842       -2.41784       
H              -5.38447       -7.32721       2.50276        
H              -7.32192       -17.8224       2.47652        
H              -11.3369       -22.4476       2.46051        
H              -9.31404       -12.0275       2.48805        
H              -11.4177       -6.27635       2.44274        
H              -13.3301       -16.6563       2.48656        
12
R1=3, R2=3; v1 = 0.8, v2 = 0.04; Energy = -1.59051
C              -12.668        -13.1744       -2.4979        
C              -8.65291       -8.55755       -2.51465       
C              -9.33492       -12.037        -7.50588       
C              -10.6689       -18.96         -2.51855       
C              -6.65233       -14.3415       -2.50832       
C              -2.64083       -9.71843       -2.41784       
H              -5.38447       -7.32719       2.50276        
H              -7.32191       -17.8224       2.47651        
H              -11.3369       -22.4476       2.4605         
H              -9.31403       -12.0275       2.48805        
H              -11.4177       -6.27637       2.44274        
H              -13.3301       -16.6563       2.48658        
12
R1=3, R2=3; v1 = 0.8, v2 = 0.04; Energy = -1.59051
C              -12.668        -13.1744       -2.49789       
C              -8.65292       -8.55755       -2.51464       
C              -9.33493       -12.037        -7.50589       
C              -10.6689       -18.96         -2.51855       
C              -6.65234       -14.3415       -2.50833       
C              -2.64083       -9.71843       -2.41783       
H              -5.38447       -7.32719       2.50276        
H              -7.32191       -17.8224       2.47651        
H              -11.3369       -22.4476       2.46051        
H              -9.314         -12.0275       2.48806        
H              -11.4177       -6.27637       2.44274        
H              -13.3301       -16.6563       2.48659        
12
R1=3, R2=3; v1 = 0.8, v2 = 0.04; Energy = -1.59051
C              -12.668        -13.1744       -2.49788       
C              -8.65291       -8.55755       -2.51465       
C              -9.33496       -12.037        -7.50588       
C              -10.6689       -18.96         -2.51854       
C              -6.65234       -14.3415       -2.50834       
C              -2.64083       -9.71844       -2.41783       
H              -5.38447       -7.32716       2.50276        
H              -7.32189       -17.8225       2.47649        
H              -11.3369       -22.4476       2.4605         
H              -9.31399       -12.0275       2.48806        
H              -11.4177       -6.27639       2.44275        
H              -13.3301       -16.6563       2.48661        
12
R1=3, R2=3; v1 = 0.8, v2 = 0.04; Energy = -1.59051
C              -12.6681       -13.1744       -2.49782       
C              -8.6529        -8.55756       -2.51465       
C              -9.33504       -12.037        -7.50587       
C              -10.6689       -18.96         -2.51854       
C              -6.65237       -14.3415       -2.50839       
C              -2.64083       -9.71846       -2.41779       
H              -5.38448       -7.32711       2.50274        
H              -7.32186       -17.8225       2.47645        
H              -11.3369       -22.4476       2.46051        
H              -9.3139        -12.0275       2.48807        
H              -11.4177       -6.27644       2.44275        
H              -13.3301       -16.6562       2.48665        
12
R1=3, R2=3; v1 = 0.8, v2 = 0.04; Energy = -1.59051
C              -12.6681       -13.1744       -2.49782       
C              -8.6529        -8.55755       -2.51465       
C              -9.33505       -12.037        -7.50588       
C              -10.6689       -18.96         -2.51854       
C              -6.65236       -14.3415       -2.50839       
C              -2.64083       -9.71847       -2.41779       
H              -5.38447       -7.3271        2.50274        
H              -7.32185       -17.8225       2.47645        
H              -11.3369       -22.4476       2.46051        
H              -9.3139        -12.0275       2.48806        
H              -11.4177       -6.27644       2.44275        
H              -13.3301       -16.6563       2.48666        
12
R1=3, R2=3; v1 = 0.8, v2 = 0.04; Energy = -1.59051
C              -12.6681       -13.1744       -2.4978        
C              -8.6529        -8.55756       -2.51465       
C              -9.33508       -12.037        -7.50588       
C              -10.669        -18.96         -2.51854       
C              -6.65237       -14.3415       -2.5084        
C              -2.64083       -9.71848       -2.41778       
H              -5.38448       -7.32709       2.50274        
H              -7.32184       -17.8225       2.47643        
H              -11.3369       -22.4476       2.46051        
H              -9.31387       -12.0275       2.48806        
H              -11.4177       -6.27646       2.44275        
H              -13.33         -16.6562       2.48668        
12
R1=3, R2=3; v1 = 0.8, v2 = 0.04; Energy = -1.59051
C              -12.6188       -13.1229       -2.49731       
C              -8.45436       -8.64027       -2.51465       
C              -9.251         -12.0954       -7.50584       
C              -10.8104       -18.971        -2.51842       
C              -6.64456       -14.4867       -2.50874       
C              -2.48361       -9.99775       -2.41755       
H              -5.14741       -7.51693       2.50261        
H              -7.4271        -17.944        2.47615        
H              -11.5917       -22.435        2.46065        
H              -9.22802       -12.0868       2.4881         
H              -11.1432       -6.27019       2.44282        
H              -13.3938       -16.5813       2.48719        
12
R1=3, R2=3; v1 = 0.8, v2 = 0.04; Energy = -1.59051
C              -12.6188       -13.123        -2.49732       
C              -8.45436       -8.64026       -2.51466       
C              -9.25097       -12.0954       -7.50583       
C              -10.8104       -18.971        -2.51843       
C              -6.64457       -14.4867       -2.50875       
C              -2.4836        -9.99773       -2.41755       
H              -5.14741       -7.51698       2.50261        
H              -7.42712       -17.944        2.47614        
H              -11.5917       -22.435        2.46064        
H              -9.22802       -12.0868       2.4881         
H              -11.1432       -6.27018       2.4428         
H              -13.3938       -16.5813       2.48717        
12
R1=3, R2=3; v1 = 0.8, v2 = 0.04; Energy = -1.59051
C              -12.6187       -13.123        -2.49735       
C              -8.45435       -8.64027       -2.51467       
C              -9.25095       -12.0954       -7.50585       
C              -10.8104       -18.971        -2.51844       
C              -6.64455       -14.4867       -2.50874       
C              -2.4836        -9.99771       -2.41758       
H              -5.14742       -7.517         2.50263        
H              -7.42712       -17.944        2.47613        
H              -11.5917       -22.435        2.46063        
H              -9.22806       -12.0868       2.48809        
H              -11.1432       -6.27017       2.44277        
H              -13.3939       -16.5813       2.48715        
12
R1=3, R2=3; v1 = 0.8, v2 = 0.04; Energy = -1.59051
C              -12.6187       -13.123        -2.49736       
C              -8.45436       -8.64026       -2.51467       
C              -9.25093       -12.0954       -7.50585       
C              -10.8104       -18.971        -2.51846       
C              -6.64455       -14.4867       -2.50875       
C              -2.48359       -9.9977        -2.41757       
H              -5.14742       -7.51703       2.50262        
H              -7.42713       -17.944        2.47613        
H              -11.5917       -22.435        2.46062        
H              -9.22807       -12.0868       2.48808        
H              -11.1432       -6.27017       2.44277        
H              -13.3939       -16.5813       2.48713        
12
R1=3, R2=3; v1 = 0.8, v2 = 0.04; Energy = -1.59051
C              -12.6187       -13.123        -2.4974        
C              -8.45436       -8.64026       -2.51468       
C              -9.2509        -12.0954       -7.50587       
C              -10.8104       -18.971        -2.51847       
C              -6.64454       -14.4867       -2.50874       
C              -2.4836        -9.9977        -2.41759       
H              -5.14743       -7.51704       2.50264        
H              -7.42714       -17.944        2.47613        
H              -11.5917       -22.435        2.46061        
H              -9.2281        -12.0868       2.48807        
H              -11.1432       -6.27016       2.44276        
H              -13.3939       -16.5814       2.4871         
12
R1=3, R2=3; v1 = 0.8, v2 = 0.04; Energy = -1.59051
C              -12.6187       -13.123        -2.49742       
C              -8.45437       -8.64026       -2.51468       
C              -9.25087       -12.0954       -7.50587       
C              -10.8104       -18.971        -2.51848       
C              -6.64453       -14.4867       -2.50874       
C              -2.48359       -9.99768       -2.41759       
H              -5.14743       -7.51707       2.50263        
H              -7.42716       -17.9439       2.47613        
H              -11.5917       -22.435        2.4606         
H              -9.22811       -12.0868       2.48806        
H              -11.1432       -6.27015       2.44276        
H              -13.3939       -16.5813       2.48707        
12
R1=3, R2=3; v1 = 0.8, v2 = 0.04; Energy = -1.59051
C              -12.6187       -13.123        -2.49743       
C              -8.45436       -8.64026       -2.51468       
C              -9.25085       -12.0954       -7.50588       
C              -10.8104       -18.971        -2.51849       
C              -6.64453       -14.4867       -2.50874       
C              -2.4836        -9.99767       -2.4176        
H              -5.14743       -7.51707       2.50263        
H              -7.42716       -17.9439       2.47614        
H              -11.5917       -22.435        2.46059        
H              -9.22814       -12.0868       2.48806        
H              -11.1432       -6.27014       2.44276        
H              -13.3939       -16.5814       2.48706        
12
R1=3, R2=3; v1 = 0.8, v2 = 0.04; Energy = -1.59051
C              -12.6187       -13.123        -2.49744       
C              -8.45437       -8.64026       -2.51469       
C              -9.25083       -12.0954       -7.50588       
C              -10.8104       -18.971        -2.51849       
C              -6.64453       -14.4867       -2.50873       
C              -2.48359       -9.99766       -2.4176        
H              -5.14744       -7.51709       2.50263        
H              -7.42717       -17.9439       2.47614        
H              -11.5917       -22.435        2.46058        
H              -9.22814       -12.0868       2.48806        
H              -11.1432       -6.27013       2.44275        
H              -13.3939       -16.5814       2.48705        
12
R1=3, R2=3; v1 = 0.8, v2 = 0.04; Energy = -1.59051
C              -12.6187       -13.123        -2.49746       
C              -8.45436       -8.64026       -2.51469       
C              -9.25081       -12.0954       -7.50589       
C              -10.8103       -18.971        -2.5185        
C              -6.64452       -14.4867       -2.50872       
C              -2.4836        -9.99766       -2.41761       
H              -5.14743       -7.51709       2.50264        
H              -7.42718       -17.9439       2.47614        
H              -11.5917       -22.435        2.46058        
H              -9.22817       -12.0868       2.48805        
H              -11.1432       -6.27013       2.44275        
H              -13.3939       -16.5814       2.48703        
12
R1=3, R2=3; v1 = 0.8, v2 = 0.04; Energy = -1.59051
C              -12.6187       -13.123        -2.49748       
C              -8.45437       -8.64026       -2.51468       
C              -9.25078       -12.0954       -7.50589       
C              -10.8103       -18.971        -2.51851       
C              -6.64452       -14.4867       -2.50872       
C              -2.48359       -9.99764       -2.41762       
H              -5.14744       -7.51712       2.50263        
H              -7.4272        -17.9439       2.47615        
H              -11.5917       -22.435        2.46057        
H              -9.22817       -12.0868       2.48805        
H              -11.1432       -6.27012       2.44275        
H              -13.3939       -16.5814       2.48701        
12
R1=3, R2=3; v1 = 0.8, v2 = 0.04; Energy = -1.59051
C              -12.6187       -13.123        -2.49749       
C              -8.45437       -8.64026       -2.51469       
C              -9.25077       -12.0954       -7.50589       
C              -10.8103       -18.971        -2.51851       
C              -6.64451       -14.4867       -2.50871       
C              -2.4836        -9.99764       -2.41763       
H              -5.14744       -7.51711       2.50264        
H              -7.42719       -17.9439       2.47616        
H              -11.5917       -22.435        2.46056        
H              -9.22819       -12.0868       2.48805        
H              -11.1432       -6.27011       2.44275        
H              -13.3939       -16.5814       2.487          
12
R1=3, R2=3; v1 = 0.8, v2 = 0.04; Energy = -1.59051
C              -12.6187       -13.123        -2.49751       
C              -8.45438       -8.64026       -2.5147        
C              -9.25073       -12.0954       -7.50589       
C              -10.8103       -18.9711       -2.51852       
C              -6.6445        -14.4866       -2.5087        
C              -2.48359       -9.99763       -2.41763       
H              -5.14744       -7.51714       2.50264        
H              -7.42722       -17.9439       2.47617        
H              -11.5917       -22.435        2.46055        
H              -9.22821       -12.0868       2.48805        
H              -11.1432       -6.27009       2.44275        
H              -13.394        -16.5814       2.48697        
12
R1=3, R2=3; v1 = 0.8, v2 = 0.04; Energy = -1.59051
C              -12.6187       -13.123        -2.49752       
C              -8.45437       -8.64026       -2.51469       
C              -9.25072       -12.0954       -7.50589       
C              -10.8103       -18.971        -2.51852       
C              -6.6445        -14.4866       -2.50869       
C              -2.48359       -9.99763       -2.41764       
H              -5.14744       -7.51714       2.50265        
H              -7.42721       -17.9439       2.47617        
H              -11.5917       -22.435        2.46055        
H              -9.22823       -12.0868       2.48805        
H              -11.1432       -6.27009       2.44275        
H              -13.394        -16.5814       2.48697        
12
R1=3, R2=3; v1 = 0.8, v2 = 0.04; Energy = -1.59051
C              -12.6114       -13.2347       -2.49776       
C              -8.48815       -8.71418       -2.51472       
C              -9.25256       -12.1765       -7.50593       
C              -10.7497       -19.066        -2.51858       
C              -6.62497       -14.5438       -2.5085        
C              -2.50521       -10.017        -2.41752       
H              -5.19176       -7.561         2.50272        
H              -7.37648       -18.008        2.47635        
H              -11.4998       22.4631        2.46046        
H              -9.23084       -12.1675       2.48802        
H              -11.1986       -6.36853       2.44259        
H              -13.3554       -16.7          2.48672        
12
R1=3, R2=3; v1 = 0.8, v2 = 0.04; Energy = -1.59051
C              -12.6038       -13.3461       -2.49799       
C              -8.52158       -8.78849       -2.51467       
C              -9.25431       -12.2576       -7.50593       
C              -10.6895       -19.1604       -2.51857       
C              -6.60584       -14.6011       -2.50834       
C              -2.52713       -10.0372       -2.41771       
H              -5.23563       -7.60597       2.50277        
H              -7.32631       -18.0719       2.47649        
H              -11.4086       22.3622        2.46054        
H              -9.23339       -12.2484       2.48802        
H              -11.2528       -6.46717       2.44271        
H              -13.3169       -16.8179       2.48651        
12
R1=3, R2=3; v1 = 0.8, v2 = 0.04; Energy = -1.59051
C              -12.596        -13.4569       -2.49791       
C              -8.55433       -8.86326       -2.51459       
C              -9.25629       -12.3387       -7.50585       
C              -10.6302       -19.254        -2.51857       
C              -6.58711       -14.6586       -2.50829       
C              -2.54903       -10.0588       -2.41772       
H              -5.2789        -7.65173       2.50283        
H              -7.27682       -18.1357       2.47652        
H              -11.3185       22.2624        2.46049        
H              -9.23541       -12.3294       2.48808        
H              -11.306        -6.56627       2.44281        
H              -13.2782       -16.9349       2.48656        
12
R1=3, R2=3; v1 = 0.8, v2 = 0.04; Energy = -1.59051
C              -12.5878       -13.5675       -2.49803       
C              -8.58674       -8.93845       -2.51465       
C              -9.25802       -12.4199       -7.50592       
C              -10.5711       -19.347        -2.51858       
C              -6.56862       -14.7163       -2.50828       
C              -2.57113       -10.0811       -2.41756       
H              -5.32227       -7.69813       2.50288        
H              -7.22776       -18.1992       2.47654        
H              -11.2287       22.1634        2.46051        
H              -9.23743       -12.4104       2.48803        
H              -11.3586       -6.66573       2.44265        
H              -13.2395       -17.0513       2.48647        
12
R1=3, R2=3; v1 = 0.8, v2 = 0.04; Energy = -1.59051
C              -12.5794       -13.6783       -2.49797       
C              -8.6195        -9.01398       -2.51458       
C              -9.25996       -12.5012       -7.50585       
C              -10.5116       -19.4397       -2.51858       
C              -6.55029       -14.7737       -2.50825       
C              -2.59404       -10.1033       -2.41765       
H              -5.36603       -7.74485       2.50289        
H              -7.17854       -18.2624       2.47655        
H              -11.1383       22.065         2.46045        
H              -9.23942       -12.4915       2.48809        
H              -11.4113       -6.76583       2.44277        
H              -13.2002       -17.1677       2.48651        
12
R1=3, R2=3; v1 = 0.8, v2 = 0.04; Energy = -1.59051
C              -12.5707       -13.7893       -2.49807       
C              -8.6526        -9.08986       -2.51474       
C              -9.26186       -12.5826       -7.50601       
C              -10.4517       -19.5321       -2.51854       
C              -6.53205       -14.831        -2.50843       
C              -2.61768       -10.1254       -2.41754       
H              -5.41079       -7.79143       2.50278        
H              -7.12909       -18.325        2.47646        
H              -11.047        21.9673        2.46064        
H              -9.24127       -12.5728       2.48793        
H              -11.4647       -6.86696       2.44255        
H              -13.1603       -17.2841       2.4865         
12
R1=3, R2=3; v1 = 0.8, v2 = 0.04; Energy = -1.6297
C              -13.974        -12.9529       -2.4783        
C              -9.95113       -8.34007       -2.5146        
C              -17.9949       -17.5725       -2.4518        
C              -11.9827       -18.7388       -2.50784       
C              -7.95901       -14.1256       -2.51659       
C              -15.9605       -7.16318       -2.42187       
H              -6.53012       -7.22775       2.43453        
H              -8.60644       -17.6052       2.47074        
H              -12.6265       -22.2267       2.4726         
H              -10.5955       -11.8069       2.49138        
H              -12.5279       -5.99289       2.50754        
H              -14.611        -16.4319       2.51407        
12
R1=3, R2=3; v1 = 0.8, v2 = 0.04; Energy = -1.6297
C              -13.974        -12.9529       -2.47828       